112
Lattice="10.0817089081 0.0 0.0 0.0 11.2165660858 0.0 0.0 0.0 6.9226865768" Properties=species:S:1:pos:R:3:momenta:R:3:forces:R:3:magmoms:R:1 target_atoms="50 65 68 11 1 8 80 89 77 73 41 61 4 29 63 21 72 37 43 27 90 87 55 99 2 83 101 26 45 40 78 35 28 23 49 75 9 88 7 31 48 62 108 36 3 97 59 71 103 84 86 106 91 53 22 76 105 10 107 98 58 110 96 70 5 79 20 94 74 34 85 14 64 6 104 15 109 66 69 16 100 95 102 17 19 111 0" energy=-734.53114018 stress="-0.016425161869394817 0.006968988315673218 -0.004052740550388139 0.006968988315673218 -0.029882752924015207 -0.008418692630320024 -0.004052740550388139 -0.008418692630320024 -0.013267943180562482" dipole="_JSON [[0.0, 0.0, 0.0]]" magmom=0.0 free_energy=-734.53114018 pbc="T T T"
B        3.47027154       5.05122058       1.87099170       1.73876778       0.09581577      -1.46924533      -2.26558070       1.44170902       2.30639802       0.00000000
B        3.28566658      10.63059682       1.98123190       0.17451243      -0.19625082      -0.67930235      -0.69119512       1.30330843       0.89191163       0.00000000
B        8.35991799       5.06022789       2.06461282      -0.35058496       0.28107306       1.00769764      -0.38943860       0.69882122       0.01605840       0.00000000
B        8.42668504      10.72450227       2.04496971       0.39487061      -1.23522473      -0.36431952      -0.15461484      -0.52387591       0.57015673       0.00000000
B        1.66597511       0.51353310       2.08858093      -1.17820788      -0.47811674      -1.34845969       0.76190763       0.43712896       0.47882406       0.00000000
B        1.77985904       6.07194581       1.98458933      -0.08834535      -0.35141311       0.14660750      -0.09967714       0.28671594       0.75032117       0.00000000
B        6.83958691       0.61350851       1.92396764      -0.24842651       0.04915574      -0.95852346       0.84479090      -2.09094352       1.08283818       0.00000000
B        6.88492202       6.18905954       2.11021907       0.99218124      -0.05183710      -0.55519387      -1.35519008       0.51934120      -2.10097675       0.00000000
B        0.74486075       3.35043026       1.42891937       0.29101516       0.35686365      -0.15488572       0.31886477      -0.17899179      -1.20207745       0.00000000
B        0.82447956       8.86219577       1.56437334       0.40507965      -1.62643990      -0.76928685      -0.54261408       0.23607260      -0.57163022       0.00000000
B        5.77413585       3.08286726       1.52656026      -0.60717861      -0.36333019       0.26693723      -0.11853391       1.98106042      -0.46613199       0.00000000
B        5.82358973       8.95847599       1.44024115      -0.76123040       1.43694719       0.66229020      -0.39847669      -0.11361127      -1.44008633       0.00000000
B        4.12096582       2.22755636       1.39714637      -0.94247998       0.58232435       0.47462368       0.70495030       0.27627428       0.42903622       0.00000000
B        4.29402544       7.84462664       1.32150585       0.21448459       1.86641198       0.50015190      -0.70697078       1.47102121       0.88130643       0.00000000
B        9.19882729       2.52110510       1.45939720       0.45590198      -0.43330365       0.91399337       1.41302100      -1.28377557      -0.51497423       0.00000000
B        9.13233550       7.82068379       1.41620376      -1.29833968       0.36893823      -0.62193994       1.64568469       0.92829323      -0.01563250       0.00000000
B        1.80831515       0.65869715       5.11104142      -0.13161143      -0.33796861      -1.64255653       0.36520981      -2.01220378      -2.17771025       0.00000000
B        1.73750332       5.99120400       5.02908517       1.26567927       0.58430715      -0.31211491       0.39801036       0.86039456      -1.13575771       0.00000000
B        6.82645458       0.47597551       4.84562610      -0.87261906      -0.43220170       1.41467479      -1.53249581       1.06358147       0.71722215       0.00000000
B        6.54602895       6.12021029       4.98117009       0.10887929      -0.21674786       0.78733846       2.18838292      -1.14184837      -2.39717929       0.00000000
B        3.35256545       5.05923393       4.78049056       0.15712161       0.61655334      -0.78432096       0.28157100       1.31134512       2.80672843       0.00000000
B        3.43610031      10.76965166       4.88990304      -0.64887370      -0.48246647      -0.01721980      -1.21693225      -0.03233411      -0.42481485       0.00000000
B        8.23862203       5.13781649       4.90553342       0.28110674      -1.83757274       0.42148317       0.25711629      -0.38422323       0.52022154       0.00000000
B        8.22939455      10.67947687       4.97095395       0.54975574       0.81609769      -0.94327091       1.63164121      -0.51990780      -0.77458840       0.00000000
B        4.32722271       2.28004727       5.46063580       0.85912740       0.91919329      -0.64759971      -0.97216266      -0.57401268      -0.49558882       0.00000000
B        4.38692277       7.84491394       5.41528259      -0.09190477       1.79797937      -1.00657186      -1.68877967       0.15878427      -0.25648358       0.00000000
B        9.34689047       2.29335116       5.49539595       0.56811707       0.37374793       0.78969217      -2.68830622      -1.69506385      -0.01229538       0.00000000
B        9.34669447       7.98002241       5.43328799       0.82516202       0.41264174      -0.93459217      -0.09490497      -0.84721869       0.26474448       0.00000000
B        0.80488458       3.18223925       5.45585787      -0.07703431       0.19079607       0.46435969      -1.24024405       1.66950399      -1.20952854       0.00000000
B        0.74262714       8.91045138       5.52843769      -0.64737514       0.58670957      -0.30575535       1.14737776       1.08995761      -0.27858420       0.00000000
B        5.77189485       3.26134357       5.51315921       0.19039517      -0.40664105      -0.08709420       1.14468351       0.19604111      -0.80898381       0.00000000
B        5.77767043       8.95217427       5.32518952       0.12911705      -1.16311646      -1.18846673      -0.55907041       0.01440277       1.90021305       0.00000000
B        0.76528518       4.30121735      -0.14621125      -0.47415216       0.89094230      -1.05025888      -0.96144152      -0.54385843       1.34619142       0.00000000
B        0.85132652       9.87833093       0.12412944      -0.05150380       0.21073556      -1.28483073      -1.18482125       2.12311151      -1.10742851       0.00000000
B        5.81865125       4.11349472       0.10295772       0.26270863      -0.64751935       0.91541265      -0.85681390       2.76319923      -0.42608242       0.00000000
B        5.80537040       9.99202682      -0.06754829      -0.28219979      -0.50564090       0.82133192      -1.95373484      -3.39723051       0.18033992       0.00000000
B        4.30471770       1.26811764      -0.02734237       0.50821993      -0.42145002      -0.56783020      -0.40635699       0.07316514      -0.22055384       0.00000000
B        4.30089904       6.79800186      -0.05453025       0.96555222      -0.54563024       1.10103105       0.84701747       2.53987879       0.33631621       0.00000000
B        9.24286022       1.32705076       0.16511583      -0.66994411      -0.32963381       0.87165697       1.28593462      -0.08619055      -0.53346083       0.00000000
B        9.31609103       6.92430296      -0.02220406       1.03252687       0.25475905       0.84826582      -0.13573534      -1.88930990      -0.67894517       0.00000000
B        3.33241529       4.17734792       3.46605330       1.68270441       0.09462237       0.15945919      -0.48065006      -1.57082592      -2.72672452       0.00000000
B        3.27765206       9.77253674       3.48543954      -0.31415257       0.22041431       0.44544952       0.28385076      -0.40085912       0.15651946       0.00000000
B        8.21596798       4.10137401       3.53315213      -1.13335149      -1.24581291       0.01413787       1.15218190       0.08805746      -1.00525556       0.00000000
B        8.27819815       9.67368256       3.46398384      -1.17967004      -0.60739013      -0.56024663      -0.12024523       1.87985596      -0.01863943       0.00000000
B        1.65015002       1.56978601       3.60250627       0.23040159       0.15392809       1.82184338       1.92062065      -0.20602954      -0.96417519       0.00000000
B        1.70446392       7.15348207       3.65055808      -0.15327882       0.81992414      -0.93439336       1.27619079      -1.30705441      -1.40414187       0.00000000
B        6.96133411       1.47532980       3.36299525       1.06029289      -0.45160128      -0.03248609      -1.03413981       1.77673866       1.02982601       0.00000000
B        6.81156997       7.22630936       3.56155592      -0.24555740      -0.48720846      -0.07297983      -1.09844939      -1.25608409      -0.39910510       0.00000000
B        4.25322517       5.66515060       3.33252104      -0.97933638      -1.25061920       2.61474733      -0.26685314      -1.04709766      -0.21121002       0.00000000
B        4.26659383      11.24019913       3.33496092       1.10446015      -0.26478917      -0.44202070      -0.95851047      -0.04111092       1.06321073       0.00000000
B        9.17150849       5.63568321       3.52333724      -0.54100085      -0.46977000      -0.10361512       1.71320513      -0.77097540      -0.55596580       0.00000000
B        9.29206622      11.16083524       3.52695884       0.92410618       1.11550491       0.16880694       0.85760571      -0.10189792       0.23917693       0.00000000
B        0.92509726       0.12186019       3.69965522       0.76165997      -0.52237370      -0.04053810      -2.93493474      -2.32048532      -1.66447192       0.00000000
B        0.84701894       5.60993642       3.44635266      -1.05441830       1.01226059      -0.76457986      -1.43898217       1.00570888       0.79042898       0.00000000
B        5.92835897       0.07111940       3.39380674       0.97894752      -0.01453498      -1.00325889      -0.40174794       0.35792153      -0.44584338       0.00000000
B        5.90141160       5.65829158       3.33887178      -0.14781569      -0.46312612      -0.13450001      -0.96115219       0.26922282       2.14684032       0.00000000
B        1.67748675       2.85301780      -0.12984491       0.31555707      -0.92309875       0.26704173       0.11630593      -0.82028954       2.50409184       0.00000000
B        1.73634419       8.50461586       0.00980132      -0.13577767      -0.23487410       2.00818258      -0.66094443      -1.86048069      -0.08243417       0.00000000
B        6.67782658       2.76011891       0.02165337       0.01590821      -0.10131638       0.27875534       0.71751855      -0.60187626      -0.22825121       0.00000000
B        6.71942372       8.48853890      -0.22681825      -0.78752981      -0.34683864      -0.88844606       1.57688061      -0.52552318       2.51387446       0.00000000
B        3.29549894       2.78035015      -0.05571248      -0.40975207      -0.19960081       1.29593835       1.26084294      -1.02696644       0.08783575       0.00000000
B        3.34542896       8.33697749      -0.13974040       0.93589466      -0.36986099      -0.18275255       1.11556663      -0.27898615       0.81512630       0.00000000
B        8.28640448       2.72028503      -0.00478347       0.05478110      -0.63032751      -0.94483436       1.83434537       1.11899858      -0.17068545       0.00000000
B        8.48690479       8.37148444      -0.13592837       0.83702901      -0.08950544       0.55496563      -3.40328955       1.71041561       1.77581379       0.00000000
B        1.56354796       4.27818810       2.60536352      -2.51000564      -0.35875581       0.52726024       1.94996277       1.38145713      -0.78592465       0.00000000
B        1.72896336      10.01521477       2.66346946      -0.49891094      -0.03840533      -0.17466725      -0.31701716       0.06237776       0.26858248       0.00000000
B        6.73710078       4.38384487       2.49288674       0.99715837       0.30864293      -0.02362226       0.85704134       0.86110698       0.82679611       0.00000000
B        6.79779303       9.99756013       2.52644055      -0.24279866      -0.19285218       0.36388896      -0.35194329       0.02940731       0.49609524       0.00000000
B        3.22535494       1.23291488       2.56899069      -0.38360400      -0.09934588      -1.68581232       0.44739852       0.47470075       0.35179663       0.00000000
B        3.27550485       6.97190202       2.47733785       0.14044071       0.42625965       1.17349336       0.38207430      -1.62581325       1.39463508       0.00000000
B        8.58507245       1.27230480       2.58605255      -1.34781587      -0.19969479      -0.61499001      -2.48303641      -2.07634664       0.30500552       0.00000000
B        8.31074905       6.95727181       2.68293571      -0.27800814       0.15771144       0.35108378       1.05429455      -0.91326104      -1.31192954       0.00000000
B        4.25421470       3.96835878       0.88358947      -0.58388195      -1.07415445      -0.22087436      -0.07162084      -0.61161543      -1.00243386       0.00000000
B        4.12159957       9.65191700       0.82595174      -0.77042248      -0.42147040       0.75830814       2.00123510      -1.44354978      -0.73730222       0.00000000
B        9.31985750       4.21260499       0.81924537       0.08502701      -0.40664330       0.01365725      -0.33187233      -2.30942929       0.76156312       0.00000000
B        9.32296666       9.56056283       0.99377340      -2.21384666       1.57336631       0.70952217      -0.19426608       0.61206429      -1.83040640       0.00000000
B        0.92958565       1.57569899       0.90076036       0.34246463      -0.75156910       1.68488428      -1.86158478       0.83474115       0.25942301       0.00000000
B        0.87432018       7.19865703       0.83881359       1.17270120      -0.46713532      -0.11767198      -1.31818187      -0.07961699       1.11447135       0.00000000
B        5.81430958       1.52205269       0.84322635      -0.05050955      -0.26694232      -0.24800444      -0.67623721      -0.42551132      -0.31994334       0.00000000
B        5.92290597       7.22764311       0.94858482      -0.95794841       0.31510904       0.05388313       0.17751996      -0.55146592      -0.99501322       0.00000000
B        3.29182654       1.27325822       4.34238325      -1.62855870       0.18414685      -0.89068239       1.13670499       0.41099574      -0.38683189       0.00000000
B        3.43416385       6.81865619       4.25714329      -0.07060766      -0.75187016      -0.74590682      -1.33563315       1.01538001       0.29221767       0.00000000
B        8.36436328       1.10842922       4.43523730      -0.06337299       0.75945338      -0.41059849       1.23832990       2.56300993      -1.11308880       0.00000000
B        8.30750083       6.91536618       4.32856863       0.77296720       0.85478152       1.79010669       0.63261871      -0.24515453       1.51610959       0.00000000
B        1.79882185       4.31375117       4.25187575       0.46238422      -0.36332294      -0.38782351      -1.54465611       0.54484647       1.16250347       0.00000000
B        1.76334736       9.97543375       4.41297960      -1.12949991       0.80441043      -0.10894756       0.48451066       1.25073825      -0.16118205       0.00000000
B        6.73246134       4.24422137       4.35988080      -0.76624718       1.58418560      -0.55579478      -1.04368759       2.08816982      -0.03050506       0.00000000
B        6.68273748       9.96608306       4.28951268       0.17096692      -0.05526768       1.26653174       1.54800781       1.69195964      -0.49980069       0.00000000
B        0.65794098       1.52949676       6.13926776       0.39031849       0.88832243      -0.72483265       1.90560578      -0.22747408       0.72792244       0.00000000
B        0.72317853       7.18701637       6.08565555      -0.02902406       1.25256490       1.30865959       1.96329241      -0.29748023      -0.63297400       0.00000000
B        5.86546144       1.56257755       6.01134047       1.71688002      -1.09427287       0.01356667       0.16107139      -1.08356520      -0.14378912       0.00000000
B        5.80839491       7.10962606       6.15014627       0.71292257      -0.07199702      -0.69809729       0.81344155       0.28008420      -0.88408118       0.00000000
B        4.26212545       3.92481897       6.06174103       0.02564696       0.67774081      -0.23080648      -0.18170261       1.69705992      -0.42328458       0.00000000
B        4.22576472       9.64095762       5.94996064       0.31676562       0.16038128       0.18605268       0.62325390       0.04137572       1.19867101       0.00000000
B        9.24593232       3.96799303       5.97514667       1.33590877      -1.57718404      -0.94086008       0.41900676       0.40411496       0.55691130       0.00000000
B        9.37302792       9.80176691       6.01896299      -0.12596482      -0.14970631      -0.82098234      -0.81665711      -1.47872299       1.80304121       0.00000000
B        0.70669299       2.91499875       3.63157885       0.65484151      -1.13115583      -0.24903757       1.11076624       0.44568415      -0.47254601       0.00000000
B        0.93944544       8.62904849       3.62865975       0.48562900       0.29433617       0.23864688      -1.35437951      -0.96391461      -0.90209825       0.00000000
B        6.08552714       2.98255260       3.28245121      -1.27564557       1.13970721      -0.58053324      -2.00138777      -2.18320952       0.84637068       0.00000000
B        5.89300846       8.63451338       3.46891911       1.16777545       0.23002635      -0.13752937      -0.68526797      -1.20871105      -0.59328464       0.00000000
B        4.08319102       2.73840890       3.45636349       1.37553978       1.50512013      -0.92515607       2.34988204      -1.32873736      -0.05560344       0.00000000
B        4.13861612       8.37502221       3.43778157      -0.50296774      -0.73249844       1.81514223       1.02122432      -0.77706736      -0.00953780       0.00000000
B        9.15383668       2.76507198       3.22384194      -0.44079366       0.93982194       0.16326144       0.48091383       0.53166250       1.93237366       0.00000000
B        9.22975603       8.40170763       3.63734540       1.11153847      -0.54678167      -0.00462141       1.26826624      -1.36981007      -0.31841646       0.00000000
B        3.40018380       5.49639248      -0.12779988      -2.35220613      -0.70402382       0.44568950      -1.84550288      -1.92625063      -0.12085967       0.00000000
B        3.46750728      11.06915389      -0.07103737      -0.17716051      -0.73250233       0.31886132      -0.66372785       0.25926582      -0.10051863       0.00000000
B        8.51151694       5.36202913      -0.20443619       0.37509821       1.06729347      -0.08822215      -1.00065684       2.37397646       0.33819815       0.00000000
B        8.38199314      11.13070691       0.26734249      -0.36505396       0.20216208      -0.80087733      -0.23302894      -0.47400188      -0.72240169       0.00000000
B        1.76844453       0.11863110      -0.06439291      -0.21281212       0.36548393       0.55328983      -1.34401606      -0.65878257       0.59436652       0.00000000
B        1.53110689       5.68281393       0.13137380       0.61922613       0.21411775       0.96260087       2.55758018       1.02040097      -1.66321202       0.00000000
B        6.62371052       0.07612602       0.13850445       0.28875697       0.69136552      -0.38255486       2.12930823       1.99039221      -0.62487725       0.00000000
B        6.80485715       5.43216601      -0.20037020      -0.51166340       0.21754745      -0.16746857      -0.14453540       1.19563055       0.61961826       0.00000000
105
Lattice="10.629143142660002 0.0 0.0 4.450994253615001 9.65232273096 0.0 4.450994253615001 2.84894174901 9.222302587365" Properties=species:S:1:pos:R:3:momenta:R:3:forces:R:3:magmoms:R:1 target_atoms="0 1 2 3 4 5 165" energy=-682.60650199 stress="0.13642248578740465 -0.0006645493987225706 0.004006695988857111 -0.0006645493987225706 0.13569830218308976 0.00435005617952405 0.004006695988857111 0.00435005617952405 0.13610174115580254" dipole="_JSON [[0.0, 0.0, 0.0]]" magmom=0.0 free_energy=-682.61642529 pbc="T T T"
B        0.72518160       1.68671314       0.01394392      -0.14315413       0.36779405      -0.03381135       0.47720554      -1.42741768      -0.25966669       0.00000000
B        0.69524107       0.45916192       1.58504838      -0.20947234      -0.09189904       0.01915796       0.72386235       0.39264744      -1.12522089       0.00000000
B        1.72501948      -0.04287928       0.01948256       0.13396123       0.26506716       0.06202138       0.70308014       1.12888072       0.95806498       0.00000000
B       17.84544256      12.49836176       9.19944330       0.25453431      -0.19020065      -0.32668013      -1.52513314      -0.24551790       0.60641377       0.00000000
B       18.76274273      10.97644533       9.12207531      -0.31739538       0.08642230      -0.17909560       0.01165481      -1.37358577       1.50350204       0.00000000
B       18.66970640      11.98715580       7.79164090      -0.20262460       0.02107068       0.09224036       1.27783602       0.44512767      -1.78736543       0.00000000
B        5.15617062       8.37626634       0.95515954       0.11532600       0.33528327      -0.31655950       1.55539234       0.22097177      -0.39752977       0.00000000
B        5.31818633       3.39497595       7.77675662       0.04307683       0.41776195       0.17099352      -0.80989348      -0.06254183       0.38510184       0.00000000
B        9.91941441       1.25802479       0.83662713      -0.17173406      -0.05517019      -0.28264537      -1.71458291       0.40348467       2.47408505       0.00000000
B        9.71599343      11.31704596       8.39615208       0.03080464       0.39540062      -0.00673588      -0.32469923      -0.72704696      -1.32465294       0.00000000
B       14.23959530       4.06604531       8.37251155       0.06770024       0.23558267      -0.01987767       1.06727418       0.84407735      -2.05655092       0.00000000
B       14.33916640       9.13355923       1.39106528      -0.01284164      -0.11491636       0.06379251      -1.62637758       0.25062030       1.38865960       0.00000000
B       18.00225875       9.19502217       9.19258467      -0.25726207      -0.14336430      -0.16915054      -0.21201728       0.05686813       0.12561676       0.00000000
B       18.05654326      11.52441338       6.13733567       0.39277404      -0.13782080       0.04237625      -1.09892135      -0.40384432      -0.65534313       0.00000000
B       15.95385686      12.49489528       9.08310312       0.19741409       0.15130392       0.35679013      -0.46260079      -0.49884739       0.84984625       0.00000000
B        3.63178416       0.01525357       0.06234978      -0.22061734       0.01815916      -0.07377345      -0.54589073       0.51384842      -0.51832156       0.00000000
B        1.57915978       3.24706267      -0.00375976       0.21600873       0.33062464       0.01815444      -0.03068882      -0.17102740       0.56829369       0.00000000
B        1.58622229       1.09002529       3.13600557      -0.07715906       0.00899706       0.02295256      -0.81650211      -3.14787522      -1.23113153       0.00000000
B        3.70978117       4.95008269       1.04226367       0.16300428       0.05248978      -0.30649624       0.49806472       0.88193716      -1.17446916       0.00000000
B        3.75313187       2.32866349       4.42457435       0.20501730      -0.15476344      -0.13988959       0.03031416       0.39821109       1.21932383       0.00000000
B        6.12266400       1.35262328       1.06016354      -0.19661488      -0.18006144      -0.15893541      -0.86277603      -1.89960654      -2.14567620       0.00000000
B       13.44957846      11.26192750       8.20586631       0.07611985      -0.34533859       0.34564534      -1.14094212      -1.57469021       0.68639706       0.00000000
B       15.76855537       7.43856994       8.27730352      -0.09252171      -0.27233547      -0.13997843      -0.36063683       0.16045215      -0.16122169       0.00000000
B       15.71770440      10.06743237       4.63230750       0.05739146       0.37974232       0.18789096       2.17646064       1.13052970       0.65952285       0.00000000
B        4.58202329       0.55872516       1.51824860       0.41036302      -0.02148195       0.27239818      -0.46247990      -0.71108507       0.07998086       0.00000000
B        3.40720699       3.33152239       0.08599278       0.02312511      -0.21252389      -0.07454660      -0.25477611       0.80781017      -0.63578247       0.00000000
B        2.27612959       2.58252088       3.14516235      -0.34692914       0.04844045       0.17189271       1.44303751       1.41853994       0.73577286       0.00000000
B       17.22171174       8.57415494       7.65146052       0.05641430      -0.15724415      -0.19622759      -0.55063347       0.49387440       0.05063051       0.00000000
B       16.14976179      11.52951084       5.96750694      -0.10012094       0.04765141       0.14205807       0.19223547      -1.11008728      -0.19339519       0.00000000
B       15.06990094      10.79837140       9.11146117       0.41280055       0.26914322       0.20780243      -0.39954291       1.17297572       0.34506041       0.00000000
B       14.92819712      12.03158363       7.61178049       0.27429334      -0.02981113      -0.10830749       1.22212880      -0.07377817       0.63326964       0.00000000
B       16.14802185       9.03629277       9.22761414      -0.11719515       0.08816565      -0.10406807       0.40711447       0.06597008      -0.24679155       0.00000000
B       17.07965607       9.75519528       6.07978240      -0.04691942       0.13855946       0.23080035       0.77134097       1.12174676      -0.88227956       0.00000000
B        2.45603385       3.81342557       1.56675292      -0.01769263      -0.49013634       0.26183368      -1.36764249      -0.08156743       0.24603416       0.00000000
B        3.39875295       1.03622626       3.21057254      -0.33702554       0.06395089       0.00263620      -0.29166269      -0.16614992       0.75458811       0.00000000
B        4.55871485       1.59845302      -0.03390125      -0.25196370       0.10495883      -0.39089516      -0.89642874       0.50210547       1.01843467       0.00000000
B       10.61002846       9.16494367       1.58915250       0.06490008      -0.23814287       0.08890861      -1.63567479       0.29726993      -2.86700712       0.00000000
B        8.28324379       7.85142255       8.21806186       0.08159732       0.16483533      -0.21166218      -2.25735462      -0.15846302       1.58159509       0.00000000
B       12.62574074       3.07387160       5.00097632       0.00530240       0.17600811       0.27859633       1.17258622       0.93570793       0.97813737       0.00000000
B        6.74546890       6.78736052       7.73545233       0.13118416      -0.71855724       0.17673421       1.32211327      -1.50289666      -1.27447703       0.00000000
B       11.32467931       2.21178138       4.13177729      -0.06896412      -0.08016858       0.23163305      -0.10213653       0.65229502       0.22692997       0.00000000
B        8.92205083       8.34319904       0.90810969      -0.00862348      -0.09748262      -0.00964365       1.08195208       0.71295263       0.18716647       0.00000000
B        8.87415129       3.31969973       7.63379321       0.30849718       0.26028437      -0.28095688       1.21424422       0.75588803       1.47029203       0.00000000
B       11.30746023       4.53453911       0.94751544      -0.10270134       0.00663481       0.06727520       0.75374693       1.06537382       0.13915605       0.00000000
B        6.77737799       9.29835529       4.08404114      -0.23512150       0.24421485       0.42393339       0.50431021       0.97954588       0.74169569       0.00000000
B       12.74169893       5.77150102       1.58982186       0.07746821       0.27969741       0.26390346      -0.21900761      -0.67745023      -1.75582705       0.00000000
B        8.21365433      10.18079317       5.14532629      -0.10620274      -0.08173325       0.02900636      -1.97440558       0.91026164      -0.78371163       0.00000000
B       10.49158033       4.20677108       8.31071781      -0.00110889       0.31682673       0.18244056       1.44171147      -0.66986987      -0.65175238       0.00000000
B        6.00250857       7.21744631       1.92895280      -0.36045053      -0.34330206      -0.08822978       0.24538513      -0.08048773      -0.88703894       0.00000000
B        6.05198601       3.91061050       6.29828759      -0.04515256       0.05942719       0.24326099       0.34586388      -0.33305209       0.66892942       0.00000000
B        8.97199364       2.51886263       1.88576852       0.30897353       0.16685825      -0.00673176       1.65382741      -0.50201545      -1.09266307       0.00000000
B       10.50853259      10.09911697       7.42819210      -0.43286541       0.35860355      -0.17960795      -0.68890180      -0.38943429      -0.29368490       0.00000000
B       13.48894763       5.23395495       7.32644368       0.06992374       0.19569872       0.08103381      -0.29729719       0.52957275       0.84344330       0.00000000
B       13.54657846       8.53688626       2.86660598      -0.04281299      -0.24768191      -0.42546113      -0.73108828       1.80783155      -0.20050246       0.00000000